# vtk DataFile Version 3.0
#This file was generated by the deal.II library on 2023/3/30 at 13:25:58
ASCII
DATASET UNSTRUCTURED_GRID

POINTS 2400 double
0 0 0
0.002 0 0
0 0.002 0
0.002 0.002 0
0.002 0 0
0.004 0 0
0.002 0.002 0
0.004 0.002 0
0.004 0 0
0.006 0 0
0.004 0.002 0
0.006 0.002 0
0.006 0 0
0.008 0 0
0.006 0.002 0
0.008 0.002 0
0.008 0 0
0.01 0 0
0.008 0.002 0
0.01 0.002 0
0.01 0 0
0.012 0 0
0.01 0.002 0
0.012 0.002 0
0.012 0 0
0.014 0 0
0.012 0.002 0
0.014 0.002 0
0.014 0 0
0.016 0 0
0.014 0.002 0
0.016 0.002 0
0.016 0 0
0.018 0 0
0.016 0.002 0
0.018 0.002 0
0.018 0 0
0.02 0 0
0.018 0.002 0
0.02 0.002 0
0.02 0 0
0.022 0 0
0.02 0.002 0
0.022 0.002 0
0.022 0 0
0.024 0 0
0.022 0.002 0
0.024 0.002 0
0.024 0 0
0.026 0 0
0.024 0.002 0
0.026 0.002 0
0.026 0 0
0.028 0 0
0.026 0.002 0
0.028 0.002 0
0.028 0 0
0.03 0 0
0.028 0.002 0
0.03 0.002 0
0 0.002 0
0.002 0.002 0
0 0.004 0
0.002 0.004 0
0.002 0.002 0
0.004 0.002 0
0.002 0.004 0
0.004 0.004 0
0.004 0.002 0
0.006 0.002 0
0.004 0.004 0
0.006 0.004 0
0.006 0.002 0
0.008 0.002 0
0.006 0.004 0
0.008 0.004 0
0.008 0.002 0
0.01 0.002 0
0.008 0.004 0
0.01 0.004 0
0.01 0.002 0
0.012 0.002 0
0.01 0.004 0
0.012 0.004 0
0.012 0.002 0
0.014 0.002 0
0.012 0.004 0
0.014 0.004 0
0.014 0.002 0
0.016 0.002 0
0.014 0.004 0
0.016 0.004 0
0.016 0.002 0
0.018 0.002 0
0.016 0.004 0
0.018 0.004 0
0.018 0.002 0
0.02 0.002 0
0.018 0.004 0
0.02 0.004 0
0.02 0.002 0
0.022 0.002 0
0.02 0.004 0
0.022 0.004 0
0.022 0.002 0
0.024 0.002 0
0.022 0.004 0
0.024 0.004 0
0.024 0.002 0
0.026 0.002 0
0.024 0.004 0
0.026 0.004 0
0.026 0.002 0
0.028 0.002 0
0.026 0.004 0
0.028 0.004 0
0.028 0.002 0
0.03 0.002 0
0.028 0.004 0
0.03 0.004 0
0 0.004 0
0.002 0.004 0
0 0.006 0
0.002 0.006 0
0.002 0.004 0
0.004 0.004 0
0.002 0.006 0
0.004 0.006 0
0.004 0.004 0
0.006 0.004 0
0.004 0.006 0
0.006 0.006 0
0.006 0.004 0
0.008 0.004 0
0.006 0.006 0
0.008 0.006 0
0.008 0.004 0
0.01 0.004 0
0.008 0.006 0
0.01 0.006 0
0.01 0.004 0
0.012 0.004 0
0.01 0.006 0
0.012 0.006 0
0.012 0.004 0
0.014 0.004 0
0.012 0.006 0
0.014 0.006 0
0.014 0.004 0
0.016 0.004 0
0.014 0.006 0
0.016 0.006 0
0.016 0.004 0
0.018 0.004 0
0.016 0.006 0
0.018 0.006 0
0.018 0.004 0
0.02 0.004 0
0.018 0.006 0
0.02 0.006 0
0.02 0.004 0
0.022 0.004 0
0.02 0.006 0
0.022 0.006 0
0.022 0.004 0
0.024 0.004 0
0.022 0.006 0
0.024 0.006 0
0.024 0.004 0
0.026 0.004 0
0.024 0.006 0
0.026 0.006 0
0.026 0.004 0
0.028 0.004 0
0.026 0.006 0
0.028 0.006 0
0.028 0.004 0
0.03 0.004 0
0.028 0.006 0
0.03 0.006 0
0 0.006 0
0.002 0.006 0
0 0.008 0
0.002 0.008 0
0.002 0.006 0
0.004 0.006 0
0.002 0.008 0
0.004 0.008 0
0.004 0.006 0
0.006 0.006 0
0.004 0.008 0
0.006 0.008 0
0.006 0.006 0
0.008 0.006 0
0.006 0.008 0
0.008 0.008 0
0.008 0.006 0
0.01 0.006 0
0.008 0.008 0
0.01 0.008 0
0.01 0.006 0
0.012 0.006 0
0.01 0.008 0
0.012 0.008 0
0.012 0.006 0
0.014 0.006 0
0.012 0.008 0
0.014 0.008 0
0.014 0.006 0
0.016 0.006 0
0.014 0.008 0
0.016 0.008 0
0.016 0.006 0
0.018 0.006 0
0.016 0.008 0
0.018 0.008 0
0.018 0.006 0
0.02 0.006 0
0.018 0.008 0
0.02 0.008 0
0.02 0.006 0
0.022 0.006 0
0.02 0.008 0
0.022 0.008 0
0.022 0.006 0
0.024 0.006 0
0.022 0.008 0
0.024 0.008 0
0.024 0.006 0
0.026 0.006 0
0.024 0.008 0
0.026 0.008 0
0.026 0.006 0
0.028 0.006 0
0.026 0.008 0
0.028 0.008 0
0.028 0.006 0
0.03 0.006 0
0.028 0.008 0
0.03 0.008 0
0 0.008 0
0.002 0.008 0
0 0.01 0
0.002 0.01 0
0.002 0.008 0
0.004 0.008 0
0.002 0.01 0
0.004 0.01 0
0.004 0.008 0
0.006 0.008 0
0.004 0.01 0
0.006 0.01 0
0.006 0.008 0
0.008 0.008 0
0.006 0.01 0
0.008 0.01 0
0.008 0.008 0
0.01 0.008 0
0.008 0.01 0
0.01 0.01 0
0.01 0.008 0
0.012 0.008 0
0.01 0.01 0
0.012 0.01 0
0.012 0.008 0
0.014 0.008 0
0.012 0.01 0
0.014 0.01 0
0.014 0.008 0
0.016 0.008 0
0.014 0.01 0
0.016 0.01 0
0.016 0.008 0
0.018 0.008 0
0.016 0.01 0
0.018 0.01 0
0.018 0.008 0
0.02 0.008 0
0.018 0.01 0
0.02 0.01 0
0.02 0.008 0
0.022 0.008 0
0.02 0.01 0
0.022 0.01 0
0.022 0.008 0
0.024 0.008 0
0.022 0.01 0
0.024 0.01 0
0.024 0.008 0
0.026 0.008 0
0.024 0.01 0
0.026 0.01 0
0.026 0.008 0
0.028 0.008 0
0.026 0.01 0
0.028 0.01 0
0.028 0.008 0
0.03 0.008 0
0.028 0.01 0
0.03 0.01 0
0 0.01 0
0.002 0.01 0
0 0.012 0
0.002 0.012 0
0.002 0.01 0
0.004 0.01 0
0.002 0.012 0
0.004 0.012 0
0.004 0.01 0
0.006 0.01 0
0.004 0.012 0
0.006 0.012 0
0.006 0.01 0
0.008 0.01 0
0.006 0.012 0
0.008 0.012 0
0.008 0.01 0
0.01 0.01 0
0.008 0.012 0
0.01 0.012 0
0.01 0.01 0
0.012 0.01 0
0.01 0.012 0
0.012 0.012 0
0.012 0.01 0
0.014 0.01 0
0.012 0.012 0
0.014 0.012 0
0.014 0.01 0
0.016 0.01 0
0.014 0.012 0
0.016 0.012 0
0.016 0.01 0
0.018 0.01 0
0.016 0.012 0
0.018 0.012 0
0.018 0.01 0
0.02 0.01 0
0.018 0.012 0
0.02 0.012 0
0.02 0.01 0
0.022 0.01 0
0.02 0.012 0
0.022 0.012 0
0.022 0.01 0
0.024 0.01 0
0.022 0.012 0
0.024 0.012 0
0.024 0.01 0
0.026 0.01 0
0.024 0.012 0
0.026 0.012 0
0.026 0.01 0
0.028 0.01 0
0.026 0.012 0
0.028 0.012 0
0.028 0.01 0
0.03 0.01 0
0.028 0.012 0
0.03 0.012 0
0 0.012 0
0.002 0.012 0
0 0.014 0
0.002 0.014 0
0.002 0.012 0
0.004 0.012 0
0.002 0.014 0
0.004 0.014 0
0.004 0.012 0
0.006 0.012 0
0.004 0.014 0
0.006 0.014 0
0.006 0.012 0
0.008 0.012 0
0.006 0.014 0
0.008 0.014 0
0.008 0.012 0
0.01 0.012 0
0.008 0.014 0
0.01 0.014 0
0.01 0.012 0
0.012 0.012 0
0.01 0.014 0
0.012 0.014 0
0.012 0.012 0
0.014 0.012 0
0.012 0.014 0
0.014 0.014 0
0.014 0.012 0
0.016 0.012 0
0.014 0.014 0
0.016 0.014 0
0.016 0.012 0
0.018 0.012 0
0.016 0.014 0
0.018 0.014 0
0.018 0.012 0
0.02 0.012 0
0.018 0.014 0
0.02 0.014 0
0.02 0.012 0
0.022 0.012 0
0.02 0.014 0
0.022 0.014 0
0.022 0.012 0
0.024 0.012 0
0.022 0.014 0
0.024 0.014 0
0.024 0.012 0
0.026 0.012 0
0.024 0.014 0
0.026 0.014 0
0.026 0.012 0
0.028 0.012 0
0.026 0.014 0
0.028 0.014 0
0.028 0.012 0
0.03 0.012 0
0.028 0.014 0
0.03 0.014 0
0 0.014 0
0.002 0.014 0
0 0.016 0
0.002 0.016 0
0.002 0.014 0
0.004 0.014 0
0.002 0.016 0
0.004 0.016 0
0.004 0.014 0
0.006 0.014 0
0.004 0.016 0
0.006 0.016 0
0.006 0.014 0
0.008 0.014 0
0.006 0.016 0
0.008 0.016 0
0.008 0.014 0
0.01 0.014 0
0.008 0.016 0
0.01 0.016 0
0.01 0.014 0
0.012 0.014 0
0.01 0.016 0
0.012 0.016 0
0.012 0.014 0
0.014 0.014 0
0.012 0.016 0
0.014 0.016 0
0.014 0.014 0
0.016 0.014 0
0.014 0.016 0
0.016 0.016 0
0.016 0.014 0
0.018 0.014 0
0.016 0.016 0
0.018 0.016 0
0.018 0.014 0
0.02 0.014 0
0.018 0.016 0
0.02 0.016 0
0.02 0.014 0
0.022 0.014 0
0.02 0.016 0
0.022 0.016 0
0.022 0.014 0
0.024 0.014 0
0.022 0.016 0
0.024 0.016 0
0.024 0.014 0
0.026 0.014 0
0.024 0.016 0
0.026 0.016 0
0.026 0.014 0
0.028 0.014 0
0.026 0.016 0
0.028 0.016 0
0.028 0.014 0
0.03 0.014 0
0.028 0.016 0
0.03 0.016 0
0 0.016 0
0.002 0.016 0
0 0.018 0
0.002 0.018 0
0.002 0.016 0
0.004 0.016 0
0.002 0.018 0
0.004 0.018 0
0.004 0.016 0
0.006 0.016 0
0.004 0.018 0
0.006 0.018 0
0.006 0.016 0
0.008 0.016 0
0.006 0.018 0
0.008 0.018 0
0.008 0.016 0
0.01 0.016 0
0.008 0.018 0
0.01 0.018 0
0.01 0.016 0
0.012 0.016 0
0.01 0.018 0
0.012 0.018 0
0.012 0.016 0
0.014 0.016 0
0.012 0.018 0
0.014 0.018 0
0.014 0.016 0
0.016 0.016 0
0.014 0.018 0
0.016 0.018 0
0.016 0.016 0
0.018 0.016 0
0.016 0.018 0
0.018 0.018 0
0.018 0.016 0
0.02 0.016 0
0.018 0.018 0
0.02 0.018 0
0.02 0.016 0
0.022 0.016 0
0.02 0.018 0
0.022 0.018 0
0.022 0.016 0
0.024 0.016 0
0.022 0.018 0
0.024 0.018 0
0.024 0.016 0
0.026 0.016 0
0.024 0.018 0
0.026 0.018 0
0.026 0.016 0
0.028 0.016 0
0.026 0.018 0
0.028 0.018 0
0.028 0.016 0
0.03 0.016 0
0.028 0.018 0
0.03 0.018 0
0 0.018 0
0.002 0.018 0
0 0.02 0
0.002 0.02 0
0.002 0.018 0
0.004 0.018 0
0.002 0.02 0
0.004 0.02 0
0.004 0.018 0
0.006 0.018 0
0.004 0.02 0
0.006 0.02 0
0.006 0.018 0
0.008 0.018 0
0.006 0.02 0
0.008 0.02 0
0.008 0.018 0
0.01 0.018 0
0.008 0.02 0
0.01 0.02 0
0.01 0.018 0
0.012 0.018 0
0.01 0.02 0
0.012 0.02 0
0.012 0.018 0
0.014 0.018 0
0.012 0.02 0
0.014 0.02 0
0.014 0.018 0
0.016 0.018 0
0.014 0.02 0
0.016 0.02 0
0.016 0.018 0
0.018 0.018 0
0.016 0.02 0
0.018 0.02 0
0.018 0.018 0
0.02 0.018 0
0.018 0.02 0
0.02 0.02 0
0.02 0.018 0
0.022 0.018 0
0.02 0.02 0
0.022 0.02 0
0.022 0.018 0
0.024 0.018 0
0.022 0.02 0
0.024 0.02 0
0.024 0.018 0
0.026 0.018 0
0.024 0.02 0
0.026 0.02 0
0.026 0.018 0
0.028 0.018 0
0.026 0.02 0
0.028 0.02 0
0.028 0.018 0
0.03 0.018 0
0.028 0.02 0
0.03 0.02 0
0 0.02 0
0.002 0.02 0
0 0.022 0
0.002 0.022 0
0.002 0.02 0
0.004 0.02 0
0.002 0.022 0
0.004 0.022 0
0.004 0.02 0
0.006 0.02 0
0.004 0.022 0
0.006 0.022 0
0.006 0.02 0
0.008 0.02 0
0.006 0.022 0
0.008 0.022 0
0.008 0.02 0
0.01 0.02 0
0.008 0.022 0
0.01 0.022 0
0.01 0.02 0
0.012 0.02 0
0.01 0.022 0
0.012 0.022 0
0.012 0.02 0
0.014 0.02 0
0.012 0.022 0
0.014 0.022 0
0.014 0.02 0
0.016 0.02 0
0.014 0.022 0
0.016 0.022 0
0.016 0.02 0
0.018 0.02 0
0.016 0.022 0
0.018 0.022 0
0.018 0.02 0
0.02 0.02 0
0.018 0.022 0
0.02 0.022 0
0.02 0.02 0
0.022 0.02 0
0.02 0.022 0
0.022 0.022 0
0.022 0.02 0
0.024 0.02 0
0.022 0.022 0
0.024 0.022 0
0.024 0.02 0
0.026 0.02 0
0.024 0.022 0
0.026 0.022 0
0.026 0.02 0
0.028 0.02 0
0.026 0.022 0
0.028 0.022 0
0.028 0.02 0
0.03 0.02 0
0.028 0.022 0
0.03 0.022 0
0 0.022 0
0.002 0.022 0
0 0.024 0
0.002 0.024 0
0.002 0.022 0
0.004 0.022 0
0.002 0.024 0
0.004 0.024 0
0.004 0.022 0
0.006 0.022 0
0.004 0.024 0
0.006 0.024 0
0.006 0.022 0
0.008 0.022 0
0.006 0.024 0
0.008 0.024 0
0.008 0.022 0
0.01 0.022 0
0.008 0.024 0
0.01 0.024 0
0.01 0.022 0
0.012 0.022 0
0.01 0.024 0
0.012 0.024 0
0.012 0.022 0
0.014 0.022 0
0.012 0.024 0
0.014 0.024 0
0.014 0.022 0
0.016 0.022 0
0.014 0.024 0
0.016 0.024 0
0.016 0.022 0
0.018 0.022 0
0.016 0.024 0
0.018 0.024 0
0.018 0.022 0
0.02 0.022 0
0.018 0.024 0
0.02 0.024 0
0.02 0.022 0
0.022 0.022 0
0.02 0.024 0
0.022 0.024 0
0.022 0.022 0
0.024 0.022 0
0.022 0.024 0
0.024 0.024 0
0.024 0.022 0
0.026 0.022 0
0.024 0.024 0
0.026 0.024 0
0.026 0.022 0
0.028 0.022 0
0.026 0.024 0
0.028 0.024 0
0.028 0.022 0
0.03 0.022 0
0.028 0.024 0
0.03 0.024 0
0 0.024 0
0.002 0.024 0
0 0.026 0
0.002 0.026 0
0.002 0.024 0
0.004 0.024 0
0.002 0.026 0
0.004 0.026 0
0.004 0.024 0
0.006 0.024 0
0.004 0.026 0
0.006 0.026 0
0.006 0.024 0
0.008 0.024 0
0.006 0.026 0
0.008 0.026 0
[...]
POINT_DATA 2400
SCALARS D double 1
LOOKUP_TABLE default
300 300 300.269 300.269 300 300 300.269 300.269 300 300 300.269 300.269 300 300 300.269 300.269 300 300 300.269 300.269 300 300 300.269 300.269 300 300 300.269 300.269 300 300 300.269 300.269 300 300 300.269 300.269 300 300 300.269 300.269 300 300 300.269 300.269 300 300 300.269 300.269 300 300 300.269 300.269 300 300 300.269 300.269 300 300 300.269 300.269 300.269 300.269 300.537 300.537 300.269 300.269 300.537 300.537 300.269 300.269 300.537 300.537 300.269 300.269 300.537 300.537 300.269 300.269 300.537 300.537 300.269 300.269 300.537 300.537 300.269 300.269 300.537 300.537 300.269 300.269 300.537 300.537 300.269 300.269 300.537 300.537 300.269 300.269 300.537 300.537 300.269 300.269 300.537 300.537 300.269 300.269 300.537 300.537 300.269 300.269 300.537 300.537 300.269 300.269 300.537 300.537 300.269 300.269 300.537 300.537 300.537 300.537 300.806 300.806 300.537 300.537 300.806 300.806 300.537 300.537 300.806 300.806 300.537 300.537 300.806 300.806 300.537 300.537 300.806 300.806 300.537 300.537 300.806 300.806 300.537 300.537 300.806 300.806 300.537 300.537 300.806 300.806 300.537 300.537 300.806 300.806 300.537 300.537 300.806 300.806 300.537 300.537 300.806 300.806 300.537 300.537 300.806 300.806 300.537 300.537 300.806 300.806 300.537 300.537 300.806 300.806 300.537 300.537 300.806 300.806 300.806 300.806 301.074 301.074 300.806 300.806 301.074 301.074 300.806 300.806 301.074 301.074 300.806 300.806 301.074 301.074 300.806 300.806 301.074 301.074 300.806 300.806 301.074 301.074 300.806 300.806 301.074 301.075 300.806 300.806 301.075 301.075 300.806 300.806 301.075 301.075 300.806 300.806 301.075 301.075 300.806 300.806 301.075 301.075 300.806 300.806 301.075 301.075 300.806 300.806 301.075 301.075 300.806 300.806 301.075 301.075 300.806 300.806 301.075 301.075 301.074 301.074 301.343 301.343 301.074 301.074 301.343 301.343 301.074 301.074 301.343 301.343 301.074 301.074 301.343 301.343 301.074 301.074 301.343 301.343 301.074 301.074 301.343 301.343 301.074 301.075 301.343 301.343 301.075 301.075 301.343 301.343 301.075 301.075 301.343 301.343 301.075 301.075 301.343 301.343 301.075 301.075 301.343 301.344 301.075 301.075 301.344 301.344 301.075 301.075 301.344 301.344 301.075 301.075 301.344 301.344 301.075 301.075 301.344 301.344 301.343 301.343 301.611 301.611 301.343 301.343 301.611 301.611 301.343 301.343 301.611 301.611 301.343 301.343 301.611 301.611 301.343 301.343 301.611 301.612 301.343 301.343 301.612 301.612 301.343 301.343 301.612 301.612 301.343 301.343 301.612 301.612 301.343 301.343 301.612 301.612 301.343 301.343 301.612 301.612 301.343 301.344 301.612 301.612 301.344 301.344 301.612 301.612 301.344 301.344 301.612 301.612 301.344 301.344 301.612 301.612 301.344 301.344 301.612 301.613 301.611 301.611 301.88 301.88 301.611 301.611 301.88 301.88 301.611 301.611 301.88 301.88 301.611 301.611 301.88 301.88 301.611 301.612 301.88 301.88 301.612 301.612 301.88 301.88 301.612 301.612 301.88 301.88 301.612 301.612 301.88 301.881 301.612 301.612 301.881 301.881 301.612 301.612 301.881 301.881 301.612 301.612 301.881 301.881 301.612 301.612 301.881 301.881 301.612 301.612 301.881 301.881 301.612 301.612 301.881 301.881 301.612 301.613 301.881 301.881 301.88 301.88 302.148 302.148 301.88 301.88 302.148 302.148 301.88 301.88 302.148 302.148 301.88 301.88 302.148 302.148 301.88 301.88 302.148 302.149 301.88 301.88 302.149 302.149 301.88 301.88 302.149 302.149 301.88 301.881 302.149 302.149 301.881 301.881 302.149 302.149 301.881 301.881 302.149 302.15 301.881 301.881 302.15 302.15 301.881 301.881 302.15 302.15 301.881 301.881 302.15 302.15 301.881 301.881 302.15 302.15 301.881 301.881 302.15 302.15 302.148 302.148 302.416 302.417 302.148 302.148 302.417 302.417 302.148 302.148 302.417 302.417 302.148 302.148 302.417 302.417 302.148 302.149 302.417 302.417 302.149 302.149 302.417 302.417 302.149 302.149 302.417 302.418 302.149 302.149 302.418 302.418 302.149 302.149 302.418 302.418 302.149 302.15 302.418 302.418 302.15 302.15 302.418 302.419 302.15 302.15 302.419 302.419 302.15 302.15 302.419 302.419 302.15 302.15 302.419 302.419 302.15 302.15 302.419 302.419 302.416 302.417 302.685 302.685 302.417 302.417 302.685 302.685 302.417 302.417 302.685 302.685 302.417 302.417 302.685 302.685 302.417 302.417 302.685 302.686 302.417 302.417 302.686 302.686 302.417 302.418 302.686 302.686 302.418 302.418 302.686 302.687 302.418 302.418 302.687 302.687 302.418 302.418 302.687 302.687 302.418 302.419 302.687 302.688 302.419 302.419 302.688 302.688 302.419 302.419 302.688 302.688 302.419 302.419 302.688 302.688 302.419 302.419 302.688 302.688 302.685 302.685 302.953 302.953 302.685 302.685 302.953 302.953 302.685 302.685 302.953 302.953 302.685 302.685 302.953 302.954 302.685 302.686 302.954 302.954 302.686 302.686 302.954 302.954 302.686 302.686 302.954 302.955 302.686 302.687 302.955 302.955 302.687 302.687 302.955 302.956 302.687 302.687 302.956 302.956 302.687 302.688 302.956 302.956 302.688 302.688 302.956 302.957 302.688 302.688 302.957 302.957 302.688 302.688 302.957 302.957 302.688 302.688 302.957 302.957 302.953 302.953 303.221 303.221 302.953 302.953 303.221 303.221 302.953 302.953 303.221 303.222 302.953 302.954 303.222 303.222 302.954 302.954 303.222 303.222 302.954 302.954 303.222 303.223 302.954 302.955 303.223 303.223 302.955 302.955 303.223 303.224 302.955 302.956 303.224 303.224 302.956 302.956 303.224 303.225 302.956 302.956 303.225 303.225 302.956 302.957 303.225 303.226 302.957 302.957 303.226 303.226 302.957 302.957 303.226 303.226 302.957 302.957 303.226 303.226 303.221 303.221 303.489 303.489 303.221 303.221 303.489 303.49 303.221 303.222 303.49 303.49 303.222 303.222 303.49 303.49 303.222 303.222 303.49 303.491 303.222 303.223 303.491 303.491 303.223 303.223 303.491 303.492 303.223 303.224 303.492 303.493 303.224 303.224 303.493 303.493 303.224 303.225 303.493 303.494 303.225 303.225 303.494 303.494 303.225 303.226 303.494 303.495 303.226 303.226 303.495 303.495 303.226 303.226 303.495 303.495 303.226 303.226 303.495 303.495 303.489 303.489 303.757 303.757 303.489 303.49 303.757 303.757 303.49 303.49 303.757 303.758 303.49 303.49 303.758 303.758 303.49 303.491 303.758 303.759 303.491 303.491 303.759 303.76 303.491 303.492 303.76 303.761 303.492 303.493 303.761 303.761 303.493 303.493 303.761 303.762 303.493 303.494 303.762 303.763 303.494 303.494 303.763 303.764 303.494 303.495 303.764 303.764 303.495 303.495 303.764 303.764 303.495 303.495 303.764 303.765 303.495 303.495 303.765 303.765 303.757 303.757 304.025 304.025 303.757 303.757 304.025 304.025 303.757 303.758 304.025 304.026 303.758 303.758 304.026 304.026 303.758 303.759 304.026 304.027 303.759 303.76 304.027 304.028 303.76 303.761 304.028 304.029 303.761 303.761 304.029 304.03 303.761 303.762 304.03 304.031 303.762 303.763 304.031 304.032 303.763 303.764 304.032 304.033 303.764 303.764 304.033 304.033 303.764 303.764 304.033 304.034 303.764 303.765 304.034 304.034 303.765 303.765 304.034 304.034 304.025 304.025 304.292 304.293 304.025 304.025 304.293 304.293 304.025 304.026 304.293 304.294 304.026 304.026 304.294 304.294 304.026 304.027 304.294 304.295 304.027 304.028 304.295 304.296 304.028 304.029 304.296 304.298 304.029 304.03 304.298 304.299 304.03 304.031 304.299 304.3 304.031 304.032 304.3 304.301 304.032 304.033 304.301 304.302 304.033 304.033 304.302 304.303 304.033 304.034 304.303 304.304 304.034 304.034 304.304 304.304 304.034 304.034 304.304 304.304 304.292 304.293 304.56 304.56 304.293 304.293 304.56 304.56 304.293 304.294 304.56 304.561 304.294 304.294 304.561 304.562 304.294 304.295 304.562 304.563 304.295 304.296 304.563 304.565 304.296 304.298 304.565 304.566 304.298 304.299 304.566 304.568 304.299 304.3 304.568 304.569 304.3 304.301 304.569 304.57 304.301 304.302 304.57 304.572 304.302 304.303 304.572 304.573 304.303 304.304 304.573 304.573 304.304 304.304 304.573 304.574 304.304 304.304 304.574 304.574 304.56 304.56 304.827 304.827 304.56 304.56 304.827 304.827 304.56 304.561 304.827 304.828 304.561 304.562 304.828 304.83 304.562 304.563 304.83 304.831 304.563 304.565 304.831 304.833 304.565 304.566 304.833 304.835 304.566 304.568 304.835 304.836 304.568 304.569 304.836 304.838 304.569 304.57 304.838 304.84 304.57 304.572 304.84 304.841 304.572 304.573 304.841 304.843 304.573 304.573 304.843 304.844 304.573 304.574 304.844 304.844 304.574 304.574 304.844 304.844 304.827 304.827 305.093 305.093 304.827 304.827 305.093 305.094 304.827 304.828 305.094 305.095 304.828 304.83 305.095 305.097 304.83 304.831 305.097 305.099 304.831 304.833 305.099 305.101 304.833 304.835 305.101 305.103 304.835 304.836 305.103 305.105 304.836 304.838 305.105 305.108 304.838 304.84 305.108 305.11 304.84 304.841 305.11 305.112 304.841 304.843 305.112 305.113 304.843 304.844 305.113 305.114 304.844 304.844 305.114 305.115 304.844 304.844 305.115 305.115 305.093 305.093 305.359 305.36 305.093 305.094 305.36 305.36 305.094 305.095 305.36 305.362 305.095 305.097 305.362 305.364 305.097 305.099 305.364 305.366 305.099 305.101 305.366 305.369 305.101 305.103 305.369 305.371 305.103 305.105 305.371 305.374 305.105 305.108 305.374 305.377 305.108 305.11 305.377 305.38 305.11 305.112 305.38 305.382 305.112 305.113 305.382 305.384 305.113 305.114 305.384 305.385 305.114 305.115 305.385 305.386 305.115 305.115 305.386 305.386 305.359 305.36 305.625 305.625 305.36 305.36 305.625 305.626 305.36 305.362 305.626 305.628 305.362 305.364 305.628 305.63 305.364 305.366 305.63 305.633 305.366 305.369 305.633 305.636 305.369 305.371 305.636 305.64 305.371 305.374 305.64 305.643 305.374 305.377 305.643 305.647 305.377 305.38 305.647 305.65 305.38 305.382 305.65 305.653 305.382 305.384 305.653 305.655 305.384 305.385 305.655 305.657 305.385 305.386 305.657 305.658 305.386 305.386 305.658 305.658 305.625 305.625 305.89 305.89 305.625 305.626 305.89 305.891 305.626 305.628 305.891 305.893 305.628 305.63 305.893 305.896 305.63 305.633 305.896 305.9 305.633 305.636 305.9 305.904 305.636 305.64 305.904 305.908 305.64 305.643 305.908 305.912 305.643 305.647 305.912 305.916 305.647 305.65 305.916 305.92 305.65 305.653 305.92 305.924 305.653 305.655 305.924 305.927 305.655 305.657 305.927 305.929 305.657 305.658 305.929 305.93 305.658 305.658 305.93 305.931 305.89 305.89 306.153 306.154 305.89 305.891 306.154 306.156 305.891 305.893 306.156 306.158 305.893 305.896 306.158 306.162 305.896 305.9 306.162 306.166 305.9 305.904 306.166 306.171 305.904 305.908 306.171 306.176 305.908 305.912 306.176 306.181 305.912 305.916 306.181 306.186 305.916 305.92 306.186 306.191 305.92 305.924 306.191 306.196 305.924 305.927 306.196 306.199 305.927 305.929 306.199 306.202 305.929 305.93 306.202 306.204 305.93 305.931 306.204 306.204 306.153 306.154 306.416 306.417 306.154 306.156 306.417 306.419 306.156 306.158 306.419 306.422 306.158 306.162 306.422 306.426 306.162 306.166 306.426 306.432 306.166 306.171 306.432 306.437 306.171 306.176 306.437 306.444 306.176 306.181 306.444 306.45 306.181 306.186 306.45 306.457 306.186 306.191 306.457 306.463 306.191 306.196 306.463 306.468 306.196 306.199 306.468 306.473 306.199 306.202 306.473 306.476 306.202 306.204 306.476 306.478 306.204 306.204 306.478 306.479 306.416 306.417 306.678 306.678 306.417 306.419 306.678 306.681 306.419 306.422 306.681 306.685 306.422 306.426 306.685 306.69 306.426 306.432 306.69 306.696 306.432 306.437 306.696 306.704 306.437 306.444 306.704 306.712 306.444 306.45 306.712 306.72 306.45 306.457 306.72 306.728 306.457 306.463 306.728 306.735 306.463 306.468 306.735 306.742 306.468 306.473 306.742 306.748 306.473 306.476 306.748 306.752 306.476 306.478 306.752 306.754 306.478 306.479 306.754 306.755 306.678 306.678 306.937 306.938 306.678 306.681 306.938 306.941 306.681 306.685 306.941 306.946 306.685 306.69 306.946 306.953 306.69 306.696 306.953 306.96 306.696 306.704 306.96 306.969 306.704 306.712 306.969 306.979 306.712 306.72 306.979 306.989 306.72 306.728 306.989 306.999 306.728 306.735 306.999 307.008 306.735 306.742 307.008 307.017 306.742 306.748 307.017 307.024 306.748 306.752 307.024 307.029 306.752 306.754 307.029 307.032 306.754 306.755 307.032 307.033 306.937 306.938 307.195 307.196 306.938 306.941 307.196 307.2 306.941 306.946 307.2 307.206 306.946 306.953 307.206 307.214 306.953 306.96 307.214 307.223 306.96 306.969 307.223 307.234 306.969 306.979 307.234 307.246 306.979 306.989 307.246 307.259 306.989 306.999 307.259 307.271 306.999 307.008 307.271 307.282 307.008 307.017 307.282 307.293 307.017 307.024 307.293 307.301 307.024 307.029 307.301 307.308 307.029 307.032 307.308 307.312 307.032 307.033 307.312 307.313 307.195 307.196 307.45 307.452 307.196 307.2 307.452 307.456 307.2 307.206 307.456 307.463 307.206 307.214 307.463 307.473 307.214 307.223 307.473 307.485 307.223 307.234 307.485 307.498 307.234 307.246 307.498 307.513 307.246 307.259 307.513 307.528 307.259 307.271 307.528 307.543 307.271 307.282 307.543 307.558 307.282 307.293 307.558 307.571 307.293 307.301 307.571 307.581 307.301 307.308 307.581 307.589 307.308 307.312 307.589 307.595 307.312 307.313 307.595 307.596 307.45 307.452 307.703 307.705 307.452 307.456 307.705 307.71 307.456 307.463 307.71 307.719 307.463 307.473 307.719 307.73 307.473 307.485 307.73 307.745 307.485 307.498 307.745 307.761 307.498 307.513 307.761 307.779 307.513 307.528 307.779 307.798 307.528 307.543 307.798 307.817 307.543 307.558 307.817 307.834 307.558 307.571 307.834 307.85 307.571 307.581 307.85 307.864 307.581 307.589 307.864 307.874 307.589 307.595 307.874 307.881 307.595 307.596 307.881 307.883 307.703 307.705 307.951 307.954 307.705 307.71 307.954 307.96 307.71 307.719 307.96 307.971 307.719 307.73 307.971 307.985 307.73 307.745 307.985 308.002 307.745 307.761 308.002 308.022 307.761 307.779 308.022 308.044 307.779 307.798 308.044 308.068 307.798 307.817 308.068 308.091 307.817 307.834 308.091 308.113 307.834 307.85 308.113 308.133 307.85 307.864 308.133 308.15 307.864 307.874 308.15 308.163 307.874 307.881 308.163 308.171 307.881 307.883 308.171 308.174 307.951 307.954 308.196 308.198 307.954 307.96 308.198 308.206 307.96 307.971 308.206 308.219 307.971 307.985 308.219 308.236 307.985 308.002 308.236 308.257 308.002 308.022 308.257 308.282 308.022 308.044 308.282 308.309 308.044 308.068 308.309 308.337 308.068 308.091 308.337 308.366 308.091 308.113 308.366 308.394 308.113 308.133 308.394 308.419 308.133 308.15 308.419 308.44 308.15 308.163 308.44 308.456 308.163 308.171 308.456 308.467 308.171 308.174 308.467 308.47 308.196 308.198 308.435 308.438 308.198 308.206 308.438 308.447 308.206 308.219 308.447 308.462 308.219 308.236 308.462 308.483 308.236 308.257 308.483 308.509 308.257 308.282 308.509 308.539 308.282 308.309 308.539 308.572 308.309 308.337 308.572 308.607 308.337 308.366 308.607 308.642 308.366 308.394 308.642 308.677 308.394 308.419 308.677 308.708 308.419 308.44 308.708 308.735 308.44 308.456 308.735 308.756 308.456 308.467 308.756 308.769 308.467 308.47 308.769 308.774 308.435 308.438 308.667 308.671 308.438 308.447 308.671 308.682 308.447 308.462 308.682 308.7 308.462 308.483 308.7 308.725 308.483 308.509 308.725 308.756 308.509 308.539 308.756 308.792 308.539 308.572 308.792 308.832 308.572 308.607 308.832 308.875 308.607 308.642 308.875 308.919 308.642 308.677 308.919 308.962 308.677 308.708 308.962 309.002 308.708 308.735 309.002 309.037 308.735 308.756 309.037 309.064 308.756 308.769 309.064 309.081 308.769 308.774 309.081 309.087 308.667 308.671 308.893 308.897 308.671 308.682 308.897 308.91 308.682 308.7 308.91 308.932 308.7 308.725 308.932 308.961 308.725 308.756 308.961 308.998 308.756 308.792 308.998 309.042 308.792 308.832 309.042 309.09 308.832 308.875 309.09 309.143 308.875 308.919 309.143 309.197 308.919 308.962 309.197 309.251 308.962 309.002 309.251 309.302 309.002 309.037 309.302 309.346 309.037 309.064 309.346 309.381 309.064 309.081 309.381 309.404 309.081 309.087 309.404 309.411 308.893 308.897 309.109 309.114 308.897 308.91 309.114 309.13 308.91 308.932 309.13 309.155 308.932 308.961 309.155 309.19 308.961 308.998 309.19 309.234 308.998 309.042 309.234 309.286 309.042 309.09 309.286 309.344 309.09 309.143 309.344 309.408 309.143 309.197 309.408 309.475 309.197 309.251 309.475 309.543 309.251 309.302 309.543 309.608 309.302 309.346 309.608 309.666 309.346 309.381 309.666 309.712 309.381 309.404 309.712 309.742 309.404 309.411 309.742 309.752 309.109 309.114 309.315 309.321 309.114 309.13 309.321 309.339 309.13 309.155 309.339 309.369 309.155 309.19 309.369 309.409 309.19 309.234 309.409 309.461 309.234 309.286 309.461 309.523 309.286 309.344 309.523 309.593 309.344 309.408 309.593 309.67 309.408 309.475 309.67 309.753 309.475 309.543 309.753 309.838 309.543 309.608 309.838 309.921 309.608 309.666 309.921 309.997 309.666 309.712 309.997 310.059 309.712 309.742 310.059 310.1 309.742 309.752 310.1 310.115 309.315 309.321 309.509 309.516 309.321 309.339 309.516 309.537 309.339 309.369 309.537 309.571 309.369 309.409 309.571 309.618 309.409 309.461 309.618 309.678 309.461 309.523 309.678 309.751 309.523 309.593 309.751 309.834 309.593 309.67 309.834 309.927 309.67 309.753 309.927 310.028 309.753 309.838 310.028 310.133 309.838 309.921 310.133 310.24 309.921 309.997 310.24 310.341 309.997 310.059 310.341 310.427 310.059 310.1 310.427 310.486 310.1 310.115 310.486 310.508 309.509 309.516 309.689 309.697 309.516 309.537 309.697 309.721 309.537 309.571 309.721 309.76 309.571 309.618 309.76 309.814 309.618 309.678 309.814 309.884 309.678 309.751 309.884 309.968 309.751 309.834 309.968 310.065 309.834 309.927 310.065 310.176 309.927 310.028 310.176 310.297 310.028 310.133 310.297 310.428 310.133 310.24 310.428 310.564 310.24 310.341 310.564 310.699 310.341 310.427 310.699 310.823 310.427 310.486 310.823 310.913 310.486 310.508 310.913 310.948 309.689 309.697 309.853 309.862 309.697 309.721 309.862 309.889 309.721 309.76 309.889 309.933 309.76 309.814 309.933 309.995 309.814 309.884 309.995 310.074 309.884 309.968 310.074 310.171 309.968 310.065 310.171 310.284 310.065 310.176 310.284 310.413 310.176 310.297 310.413 310.558 310.297 310.428 310.558 310.716 310.428 310.564 310.716 310.887 310.564 310.699 310.887 311.065 310.699 310.823 311.065 311.244 310.823 310.913 311.244 311.405 310.913 310.948 311.405 311.463 309.853 309.862 310 310.01 309.862 309.889 310.01 310.04 309.889 309.933 310.04 310.089 309.933 309.995 310.089 310.159 309.995 310.074 310.159 310.248 310.074 310.171 310.248 310.357 310.171 310.284 310.357 310.486 310.284 310.413 310.486 310.635 310.413 310.558 310.635 310.804 310.558 310.716 310.804 310.992 310.716 310.887 310.992 311.2 310.887 311.065 311.2 311.428 311.065 311.244 311.428 311.676 311.244 311.405 311.676 311.944 311.405 311.463 311.944 312.232 